<?xml version="1.0" encoding="UTF-8"?>

<!-- generated on 2025-09-16 16:10:43 by Eclipse SUMO libsumo Version 1.24.0
<libsumoConfiguration xmlns:xsi="http://www.w3.org/2001/XMLSchema-instance" xsi:noNamespaceSchemaLocation="http://sumo.dlr.de/xsd/libsumoConfiguration.xsd">

    <input>
        <net-file value="/home/erzhu419/mine_code/sumo-rl/BusBunching-sumo/sumo/bunched/ring.net.xml"/>
        <additional-files value="/home/erzhu419/mine_code/sumo-rl/BusBunching-sumo/sumo/bunched/ring.add.xml"/>
    </input>

    <output>
        <tripinfo-output value="tripinfo.xml"/>
    </output>

    <processing>
        <no-internal-links value="false"/>
        <lanechange.overtake-right value="true"/>
    </processing>

    <report>
        <no-warnings value="true"/>
    </report>

</libsumoConfiguration>
-->

<tripinfos xmlns:xsi="http://www.w3.org/2001/XMLSchema-instance" xsi:noNamespaceSchemaLocation="http://sumo.dlr.de/xsd/tripinfo_file.xsd">
